[Molden Format]
[Title]
dye5
[Atoms] Angs
C   1   6      0.08072    0.03837   -0.00458
C   2   6      1.47134   -0.00470    0.12176
N   3   7      2.10661   -0.02510    1.28710
C   4   6      1.37696   -0.00537    2.40617
C   5   6     -0.02649    0.03197    2.38922
C   6   6     -0.68085    0.05651    1.16207
C   7   6      2.12588   -0.02873    3.67930
N   8   7      3.41551   -0.20658    3.76764
C   9   6      3.83315   -0.18304    5.05203
C   10   6      2.85968    0.02556    6.02607
S   11   16      1.34200    0.18752    5.20743
O   12   8      5.12851   -0.35289    5.34168
C   13   6      2.96760    0.11625    7.48368
C   14   6      4.15871   -0.22268    8.15262
C   15   6      4.24095   -0.13860    9.54104
C   16   6      3.14651    0.28200   10.29663
C   17   6      1.95995    0.62256    9.64566
C   18   6      1.87276    0.54228    8.25907
C   19   6      6.02716   -0.51039    4.24601
C   20   6      7.41816   -0.67548    4.80899
H   21   1     -0.38758    0.05541   -0.99280
H   22   1      2.10514   -0.02220   -0.77519
H   23   1     -0.59728    0.03440    3.32310
H   24   1     -1.77410    0.08534    1.11907
H   25   1      5.02018   -0.55465    7.57153
H   26   1      5.17758   -0.40971   10.03877
H   27   1      3.21693    0.34529   11.38688
H   28   1      1.09220    0.95839   10.22219
H   29   1      0.93537    0.82362    7.76714
H   30   1      5.72129   -1.38339    3.64418
H   31   1      5.95363    0.36995    3.58430
H   32   1      7.71049    0.20461    5.40335
H   33   1      7.47966   -1.56566    5.45505
H   34   1      8.14320   -0.79494    3.98865
[GTO]
    1 0
 s    5 1.00
         1238.401694             0.005517
          186.290050             0.041089
           42.251176             0.182254
           11.676558             0.468285
            3.593051             0.445758
 s    1 1.00
            0.402451             1.000000
 s    1 1.00
            0.130902             1.000000
 p    3 1.00
            9.468097             0.056888
            2.010355             0.312941
            0.547710             0.760650
 p    1 1.00
            0.152686             1.000000
 d    1 1.00
            0.800000             1.000000

    2 0
 s    5 1.00
         1238.401694             0.005517
          186.290050             0.041089
           42.251176             0.182254
           11.676558             0.468285
            3.593051             0.445758
 s    1 1.00
            0.402451             1.000000
 s    1 1.00
            0.130902             1.000000
 p    3 1.00
            9.468097             0.056888
            2.010355             0.312941
            0.547710             0.760650
 p    1 1.00
            0.152686             1.000000
 d    1 1.00
            0.800000             1.000000

    3 0
 s    5 1.00
         1712.841585            -0.005448
          257.648127            -0.040627
           58.458246            -0.181120
           16.198368            -0.468440
            5.005260            -0.446168
 s    1 1.00
            0.587319             1.000000
 s    1 1.00
            0.187646             1.000000
 p    3 1.00
           13.571470            -0.058848
            2.925737            -0.320246
            0.799278            -0.753282
 p    1 1.00
            0.219543             1.000000
 d    1 1.00
            1.000000             1.000000

    4 0
 s    5 1.00
         1238.401694             0.005517
          186.290050             0.041089
           42.251176             0.182254
           11.676558             0.468285
            3.593051             0.445758
 s    1 1.00
            0.402451             1.000000
 s    1 1.00
            0.130902             1.000000
 p    3 1.00
            9.468097             0.056888
            2.010355             0.312941
            0.547710             0.760650
 p    1 1.00
            0.152686             1.000000
 d    1 1.00
            0.800000             1.000000

    5 0
 s    5 1.00
         1238.401694             0.005517
          186.290050             0.041089
           42.251176             0.182254
           11.676558             0.468285
            3.593051             0.445758
 s    1 1.00
            0.402451             1.000000
 s    1 1.00
            0.130902             1.000000
 p    3 1.00
            9.468097             0.056888
            2.010355             0.312941
            0.547710             0.760650
 p    1 1.00
            0.152686             1.000000
 d    1 1.00
            0.800000             1.000000

    6 0
 s    5 1.00
         1238.401694             0.005517
          186.290050             0.041089
           42.251176             0.182254
           11.676558             0.468285
            3.593051             0.445758
 s    1 1.00
            0.402451             1.000000
 s    1 1.00
            0.130902             1.000000
 p    3 1.00
            9.468097             0.056888
            2.010355             0.312941
            0.547710             0.760650
 p    1 1.00
            0.152686             1.000000
 d    1 1.00
            0.800000             1.000000

    7 0
 s    5 1.00
         1238.401694             0.005517
          186.290050             0.041089
           42.251176             0.182254
           11.676558             0.468285
            3.593051             0.445758
 s    1 1.00
            0.402451             1.000000
 s    1 1.00
            0.130902             1.000000
 p    3 1.00
            9.468097             0.056888
            2.010355             0.312941
            0.547710             0.760650
 p    1 1.00
            0.152686             1.000000
 d    1 1.00
            0.800000             1.000000

    8 0
 s    5 1.00
         1712.841585            -0.005448
          257.648127            -0.040627
           58.458246            -0.181120
           16.198368            -0.468440
            5.005260            -0.446168
 s    1 1.00
            0.587319             1.000000
 s    1 1.00
            0.187646             1.000000
 p    3 1.00
           13.571470            -0.058848
            2.925737            -0.320246
            0.799278            -0.753282
 p    1 1.00
            0.219543             1.000000
 d    1 1.00
            1.000000             1.000000

    9 0
 s    5 1.00
         1238.401694             0.005517
          186.290050             0.041089
           42.251176             0.182254
           11.676558             0.468285
            3.593051             0.445758
 s    1 1.00
            0.402451             1.000000
 s    1 1.00
            0.130902             1.000000
 p    3 1.00
            9.468097             0.056888
            2.010355             0.312941
            0.547710             0.760650
 p    1 1.00
            0.152686             1.000000
 d    1 1.00
            0.800000             1.000000

   10 0
 s    5 1.00
         1238.401694             0.005517
          186.290050             0.041089
           42.251176             0.182254
           11.676558             0.468285
            3.593051             0.445758
 s    1 1.00
            0.402451             1.000000
 s    1 1.00
            0.130902             1.000000
 p    3 1.00
            9.468097             0.056888
            2.010355             0.312941
            0.547710             0.760650
 p    1 1.00
            0.152686             1.000000
 d    1 1.00
            0.800000             1.000000

   11 0
 s    5 1.00
         9184.930301            -0.005473
         1381.510550            -0.040954
          313.871476            -0.184758
           88.053871            -0.475673
           27.039915            -0.434952
 s    3 1.00
           45.648731            -0.091904
            4.966452             0.556988
            2.011624             0.511155
 s    1 1.00
            0.356611             1.000000
 s    1 1.00
            0.135072             1.000000
 p    5 1.00
          261.982334            -0.009183
           61.306895            -0.065902
           19.103730            -0.245878
            6.656772            -0.482315
            2.395964            -0.389563
 p    1 1.00
            0.617762             1.000000
 p    1 1.00
            0.169934             1.000000
 d    1 1.00
            0.550000             1.000000

   12 0
 s    5 1.00
         2266.176779            -0.005389
          340.870102            -0.040235
           77.363135            -0.180082
           21.479645            -0.468289
            6.658943            -0.446926
 s    1 1.00
            0.809760             1.000000
 s    1 1.00
            0.255308             1.000000
 p    3 1.00
           17.721504             0.062630
            3.863551             0.333311
            1.048092             0.741486
 p    1 1.00
            0.276415             1.000000
 d    1 1.00
            1.200000             1.000000

   13 0
 s    5 1.00
         1238.401694             0.005517
          186.290050             0.041089
           42.251176             0.182254
           11.676558             0.468285
            3.593051             0.445758
 s    1 1.00
            0.402451             1.000000
 s    1 1.00
            0.130902             1.000000
 p    3 1.00
            9.468097             0.056888
            2.010355             0.312941
            0.547710             0.760650
 p    1 1.00
            0.152686             1.000000
 d    1 1.00
            0.800000             1.000000

   14 0
 s    5 1.00
         1238.401694             0.005517
          186.290050             0.041089
           42.251176             0.182254
           11.676558             0.468285
            3.593051             0.445758
 s    1 1.00
            0.402451             1.000000
 s    1 1.00
            0.130902             1.000000
 p    3 1.00
            9.468097             0.056888
            2.010355             0.312941
            0.547710             0.760650
 p    1 1.00
            0.152686             1.000000
 d    1 1.00
            0.800000             1.000000

   15 0
 s    5 1.00
         1238.401694             0.005517
          186.290050             0.041089
           42.251176             0.182254
           11.676558             0.468285
            3.593051             0.445758
 s    1 1.00
            0.402451             1.000000
 s    1 1.00
            0.130902             1.000000
 p    3 1.00
            9.468097             0.056888
            2.010355             0.312941
            0.547710             0.760650
 p    1 1.00
            0.152686             1.000000
 d    1 1.00
            0.800000             1.000000

   16 0
 s    5 1.00
         1238.401694             0.005517
          186.290050             0.041089
           42.251176             0.182254
           11.676558             0.468285
            3.593051             0.445758
 s    1 1.00
            0.402451             1.000000
 s    1 1.00
            0.130902             1.000000
 p    3 1.00
            9.468097             0.056888
            2.010355             0.312941
            0.547710             0.760650
 p    1 1.00
            0.152686             1.000000
 d    1 1.00
            0.800000             1.000000

   17 0
 s    5 1.00
         1238.401694             0.005517
          186.290050             0.041089
           42.251176             0.182254
           11.676558             0.468285
            3.593051             0.445758
 s    1 1.00
            0.402451             1.000000
 s    1 1.00
            0.130902             1.000000
 p    3 1.00
            9.468097             0.056888
            2.010355             0.312941
            0.547710             0.760650
 p    1 1.00
            0.152686             1.000000
 d    1 1.00
            0.800000             1.000000

   18 0
 s    5 1.00
         1238.401694             0.005517
          186.290050             0.041089
           42.251176             0.182254
           11.676558             0.468285
            3.593051             0.445758
 s    1 1.00
            0.402451             1.000000
 s    1 1.00
            0.130902             1.000000
 p    3 1.00
            9.468097             0.056888
            2.010355             0.312941
            0.547710             0.760650
 p    1 1.00
            0.152686             1.000000
 d    1 1.00
            0.800000             1.000000

   19 0
 s    5 1.00
         1238.401694             0.005517
          186.290050             0.041089
           42.251176             0.182254
           11.676558             0.468285
            3.593051             0.445758
 s    1 1.00
            0.402451             1.000000
 s    1 1.00
            0.130902             1.000000
 p    3 1.00
            9.468097             0.056888
            2.010355             0.312941
            0.547710             0.760650
 p    1 1.00
            0.152686             1.000000
 d    1 1.00
            0.800000             1.000000

   20 0
 s    5 1.00
         1238.401694             0.005517
          186.290050             0.041089
           42.251176             0.182254
           11.676558             0.468285
            3.593051             0.445758
 s    1 1.00
            0.402451             1.000000
 s    1 1.00
            0.130902             1.000000
 p    3 1.00
            9.468097             0.056888
            2.010355             0.312941
            0.547710             0.760650
 p    1 1.00
            0.152686             1.000000
 d    1 1.00
            0.800000             1.000000

   21 0
 s    3 1.00
           13.010701             0.033485
            1.962257             0.234722
            0.444538             0.813770
 s    1 1.00
            0.121950             1.000000
 p    1 1.00
            0.800000             1.000000

   22 0
 s    3 1.00
           13.010701             0.033485
            1.962257             0.234722
            0.444538             0.813770
 s    1 1.00
            0.121950             1.000000
 p    1 1.00
            0.800000             1.000000

   23 0
 s    3 1.00
           13.010701             0.033485
            1.962257             0.234722
            0.444538             0.813770
 s    1 1.00
            0.121950             1.000000
 p    1 1.00
            0.800000             1.000000

   24 0
 s    3 1.00
           13.010701             0.033485
            1.962257             0.234722
            0.444538             0.813770
 s    1 1.00
            0.121950             1.000000
 p    1 1.00
            0.800000             1.000000

   25 0
 s    3 1.00
           13.010701             0.033485
            1.962257             0.234722
            0.444538             0.813770
 s    1 1.00
            0.121950             1.000000
 p    1 1.00
            0.800000             1.000000

   26 0
 s    3 1.00
           13.010701             0.033485
            1.962257             0.234722
            0.444538             0.813770
 s    1 1.00
            0.121950             1.000000
 p    1 1.00
            0.800000             1.000000

   27 0
 s    3 1.00
           13.010701             0.033485
            1.962257             0.234722
            0.444538             0.813770
 s    1 1.00
            0.121950             1.000000
 p    1 1.00
            0.800000             1.000000

   28 0
 s    3 1.00
           13.010701             0.033485
            1.962257             0.234722
            0.444538             0.813770
 s    1 1.00
            0.121950             1.000000
 p    1 1.00
            0.800000             1.000000

   29 0
 s    3 1.00
           13.010701             0.033485
            1.962257             0.234722
            0.444538             0.813770
 s    1 1.00
            0.121950             1.000000
 p    1 1.00
            0.800000             1.000000

   30 0
 s    3 1.00
           13.010701             0.033485
            1.962257             0.234722
            0.444538             0.813770
 s    1 1.00
            0.121950             1.000000
 p    1 1.00
            0.800000             1.000000

   31 0
 s    3 1.00
           13.010701             0.033485
            1.962257             0.234722
            0.444538             0.813770
 s    1 1.00
            0.121950             1.000000
 p    1 1.00
            0.800000             1.000000

   32 0
 s    3 1.00
           13.010701             0.033485
            1.962257             0.234722
            0.444538             0.813770
 s    1 1.00
            0.121950             1.000000
 p    1 1.00
            0.800000             1.000000

   33 0
 s    3 1.00
           13.010701             0.033485
            1.962257             0.234722
            0.444538             0.813770
 s    1 1.00
            0.121950             1.000000
 p    1 1.00
            0.800000             1.000000

   34 0
 s    3 1.00
           13.010701             0.033485
            1.962257             0.234722
            0.444538             0.813770
 s    1 1.00
            0.121950             1.000000
 p    1 1.00
            0.800000             1.000000

[MO]
 Ene=   -88.9450
 Spin= Alpha
 Occup= 2.0
    1    0.00000
    2    0.00003
    3   -0.00060
    4    0.00001
    5    0.00000
    6    0.00000
    7   -0.00018
    8    0.00001
    9   -0.00031
   10   -0.00000
   11    0.00001
   12   -0.00000
   13   -0.00000
   14    0.00000
   15   -0.00000
   16    0.00000
   17   -0.00002
   18    0.00041
   19   -0.00000
   20    0.00000
   21   -0.00001
   22   -0.00010
   23    0.00001
   24    0.00010
   25    0.00001
   26   -0.00001
   27   -0.00001
   28    0.00000
   29    0.00001
   30    0.00000
   31    0.00000
   32   -0.00006
   33    0.00115
   34   -0.00001
   35   -0.00001
   36   -0.00000
   37   -0.00020
   38   -0.00003
   39    0.00042
   40   -0.00002
   41   -0.00001
   42    0.00000
   43    0.00000
   44   -0.00002
   45    0.00000
   46   -0.00000
   47   -0.00013
   48   -0.00029
   49    0.00007
   50   -0.00001
   51   -0.00003
   52   -0.00184
   53    0.00013
   54    0.00076
   55   -0.00001
   56   -0.00004
   57   -0.00005
   58   -0.00000
   59    0.00002
   60    0.00001
   61   -0.00001
   62   -0.00005
   63   -0.00234
   64   -0.00008
   65   -0.00001
   66   -0.00006
   67    0.00003
   68   -0.00000
   69    0.00049
   70   -0.00002
   71   -0.00004
   72   -0.00009
   73   -0.00000
   74   -0.00003
   75    0.00000
   76    0.00000
   77   -0.00004
   78    0.00149
   79    0.00001
   80    0.00000
   81    0.00003
   82    0.00045
   83   -0.00003
   84    0.00037
   85    0.00001
   86   -0.00001
   87    0.00003
   88   -0.00000
   89    0.00001
   90   -0.00000
   91   -0.00002
   92    0.00041
   93    0.00118
   94    0.00009
   95   -0.00003
   96   -0.00014
   97    0.00155
   98   -0.00020
   99   -0.00105
  100   -0.00007
  101    0.00001
  102   -0.00039
  103    0.00003
  104    0.00025
  105   -0.00007
  106   -0.00001
  107    0.00013
  108   -0.00296
  109    0.00001
  110   -0.00001
  111   -0.00000
  112    0.00040
  113   -0.00012
  114   -0.00020
  115    0.00006
  116    0.00005
  117    0.00009
  118   -0.00000
  119   -0.00004
  120    0.00001
  121    0.00001
  122   -0.00010
  123   -0.00096
  124   -0.00005
  125    0.00000
  126   -0.00001
  127   -0.00088
  128    0.00004
  129   -0.00211
  130    0.00010
  131    0.00002
  132   -0.00001
  133   -0.00001
  134    0.00005
  135   -0.00001
  136   -0.00003
  137    0.00022
  138    0.00285
  139    0.00008
  140    0.00000
  141    0.00006
  142    0.00237
  143   -0.00034
  144    0.00145
  145   -0.00039
  146   -0.00004
  147   -0.00014
  148    0.00004
  149   -0.00027
  150    0.00002
  151   -0.99363
  152    0.02971
  153   -0.02936
  154   -0.00084
  155    0.00000
  156    0.00000
  157    0.00000
  158    0.00021
  159   -0.00003
  160   -0.00005
  161    0.00049
  162   -0.00009
  163   -0.00011
  164    0.01112
  165    0.01090
  166    0.01113
  167   -0.00004
  168    0.00003
  169    0.00001
  170    0.00001
  171   -0.00007
  172    0.00090
  173    0.00003
  174   -0.00000
  175   -0.00001
  176   -0.00032
  177    0.00005
  178    0.00017
  179   -0.00006
  180   -0.00003
  181   -0.00007
  182    0.00001
  183   -0.00002
  184    0.00000
  185   -0.00000
  186   -0.00008
  187   -0.00266
  188    0.00009
  189   -0.00002
  190   -0.00000
  191   -0.00164
  192    0.00053
  193    0.00118
  194   -0.00001
  195   -0.00003
  196   -0.00003
  197    0.00000
  198   -0.00000
  199    0.00001
  200    0.00000
  201    0.00002
  202    0.00152
  203   -0.00002
  204   -0.00001
  205   -0.00003
  206   -0.00052
  207    0.00021
  208   -0.00051
  209    0.00000
  210    0.00001
  211    0.00002
  212    0.00000
  213    0.00003
  214   -0.00001
  215    0.00000
  216    0.00004
  217   -0.00009
  218   -0.00001
  219    0.00000
  220    0.00000
  221    0.00020
  222   -0.00009
  223    0.00004
  224    0.00001
  225    0.00002
  226   -0.00000
  227    0.00000
  228   -0.00000
  229    0.00000
  230    0.00000
  231    0.00003
  232    0.00001
  233    0.00001
  234   -0.00001
  235   -0.00001
  236    0.00001
  237    0.00001
  238    0.00009
  239    0.00000
  240    0.00001
  241    0.00000
  242    0.00001
  243   -0.00000
  244   -0.00000
  245    0.00000
  246   -0.00001
  247    0.00108
  248   -0.00001
  249   -0.00000
  250   -0.00003
  251   -0.00005
  252    0.00000
  253   -0.00044
  254    0.00001
  255   -0.00000
  256    0.00004
  257   -0.00000
  258    0.00001
  259   -0.00000
  260   -0.00001
  261   -0.00007
  262   -0.00168
  263   -0.00003
  264    0.00003
  265    0.00009
  266   -0.00010
  267   -0.00003
  268   -0.00061
  269   -0.00003
  270   -0.00004
  271   -0.00008
  272   -0.00000
  273   -0.00003
  274    0.00001
  275    0.00000
  276   -0.00003
  277    0.00030
  278   -0.00000
  279    0.00000
  280    0.00001
  281    0.00011
  282   -0.00001
  283    0.00014
  284   -0.00001
  285   -0.00000
  286    0.00001
  287    0.00000
  288   -0.00001
  289    0.00000
  290    0.00000
  291    0.00002
  292   -0.00029
  293    0.00000
  294   -0.00000
  295    0.00000
  296    0.00010
  297   -0.00001
  298    0.00003
  299    0.00000
  300    0.00000
  301    0.00000
  302    0.00000
  303   -0.00000
  304    0.00000
  305   -0.00003
  306   -0.00005
  307   -0.00000
  308    0.00000
  309    0.00000
  310    0.00001
  311   -0.00001
  312   -0.00000
  313   -0.00000
  314    0.00000
  315   -0.00005
  316    0.00053
  317    0.00004
  318    0.00001
  319   -0.00002
  320    0.00001
  321   -0.00006
  322   -0.00001
  323    0.00000
  324   -0.00002
  325   -0.00001
  326   -0.00005
  327   -0.00001
  328   -0.00001
  329    0.00001
  330   -0.00002
  331   -0.00007
  332    0.00000
  333    0.00000
  334   -0.00001
  335   -0.00002
  336   -0.00003
  337   -0.00000
  338    0.00000
  339    0.00000
  340   -0.00001
  341   -0.00011
  342   -0.00000
  343   -0.00000
  344    0.00002
  345   -0.00006
  346    0.00046
  347    0.00004
  348   -0.00002
  349   -0.00001
  350   -0.00001
  351    0.00001
  352   -0.00000
  353    0.00001
  354   -0.00001
  355   -0.00001
  356    0.00001
  357   -0.00000
  358   -0.00001
  359   -0.00001
  360    0.00001
  361    0.00002
  362   -0.00000
  363   -0.00000
  364    0.00000
  365    0.00001
  366    0.00003
  367   -0.00000
  368    0.00000
  369    0.00000
  370    0.00001
  371    0.00002
  372   -0.00000
  373    0.00000
  374   -0.00000
 Ene=   -19.2382
 Spin= Alpha
 Occup= 2.0
    1   -0.00000
    2   -0.00003
    3    0.00003
    4   -0.00001
    5    0.00000
    6   -0.00001
    7    0.00006
    8   -0.00001
    9    0.00011
   10   -0.00001
   11   -0.00002
   12   -0.00000
   13   -0.00000
   14   -0.00000
   15   -0.00000
   16   -0.00000
   17    0.00001
   18   -0.00000
   19    0.00002
   20   -0.00000
   21    0.00001
   22   -0.00005
   23    0.00001
   24    0.00007
   25    0.00001
   26   -0.00001
   27    0.00002
   28   -0.00000
   29   -0.00000
   30    0.00000
   31    0.00000
   32   -0.00006
   33    0.00056
   34    0.00002
   35   -0.00000
   36    0.00002
   37   -0.00012
   38   -0.00000
   39    0.00025
   40   -0.00002
   41   -0.00004
   42   -0.00001
   43   -0.00000
   44   -0.00001
   45   -0.00000
   46    0.00000
   47    0.00004
   48    0.00230
   49    0.00002
   50   -0.00000
   51    0.00005
   52    0.00073
   53   -0.00004
   54    0.00181
   55    0.00003
   56    0.00001
   57    0.00007
   58    0.00000
   59    0.00007
   60   -0.00001
   61   -0.00000
   62    0.00003
   63    0.00013
   64    0.00001
   65    0.00000
   66   -0.00000
   67   -0.00010
   68    0.00000
   69   -0.00050
   70   -0.00000
   71   -0.00000
   72    0.00002
   73    0.00000
   74   -0.00002
   75    0.00000
   76   -0.00000
   77   -0.00003
   78   -0.00036
   79   -0.00001
   80   -0.00000
   81   -0.00000
   82    0.00003
   83    0.00001
   84   -0.00013
   85    0.00000
   86   -0.00002
   87   -0.00001
   88   -0.00000
   89    0.00000
   90   -0.00000
   91   -0.00001
   92   -0.00072
   93   -0.00045
   94   -0.00026
   95    0.00003
   96   -0.00018
   97    0.00098
   98    0.00010
   99    0.00360
  100   -0.00008
  101   -0.00019
  102   -0.00011
  103   -0.00002
  104   -0.00005
  105    0.00001
  106    0.00003
  107   -0.00042
  108    0.00550
  109   -0.00006
  110    0.00001
  111    0.00009
  112   -0.00186
  113    0.00037
  114    0.00163
  115   -0.00021
  116   -0.00023
  117   -0.00002
  118   -0.00001
  119   -0.00017
  120    0.00004
  121   -0.00008
  122    0.00186
  123   -0.00390
  124   -0.00003
  125   -0.00000
  126   -0.00015
  127    0.01490
  128   -0.00193
  129    0.00363
  130   -0.00077
  131    0.00008
  132    0.00005
  133    0.00012
  134   -0.00040
  135    0.00006
  136   -0.00002
  137    0.00037
  138    0.00231
  139    0.00003
  140    0.00001
  141    0.00021
  142   -0.00189
  143   -0.00049
  144   -0.01098
  145   -0.00018
  146    0.00001
  147    0.00014
  148    0.00003
  149    0.00006
  150    0.00000
  151   -0.00000
  152   -0.00006
  153   -0.00002
  154   -0.00387
  155   -0.00003
  156    0.00000
  157   -0.00000
  158   -0.00020
  159    0.00003
  160   -0.00001
  161   -0.00191
  162    0.00028
  163    0.00015
  164   -0.00035
  165   -0.00012
  166   -0.00009
  167    0.00004
  168   -0.00001
  169    0.00000
  170   -0.98590
  171    0.05025
  172   -0.02467
  173   -0.00090
  174    0.00007
  175   -0.00145
  176    0.00326
  177   -0.00034
  178    0.00273
  179   -0.00618
  180   -0.00631
  181   -0.00631
  182   -0.00002
  183   -0.00003
  184    0.00001
  185   -0.00001
  186    0.00043
  187    0.00584
  188    0.00005
  189   -0.00000
  190   -0.00006
  191   -0.00090
  192   -0.00021
  193   -0.00499
  194    0.00002
  195    0.00008
  196    0.00011
  197    0.00000
  198   -0.00003
  199    0.00002
  200   -0.00001
  201    0.00026
  202   -0.00093
  203    0.00001
  204   -0.00002
  205    0.00000
  206   -0.00140
  207    0.00051
  208    0.00009
  209    0.00007
  210    0.00005
  211   -0.00005
  212   -0.00003
  213    0.00001
  214    0.00000
  215   -0.00001
  216   -0.00010
  217    0.00067
  218    0.00001
  219    0.00000
  220    0.00003
  221    0.00013
  222   -0.00014
  223   -0.00082
  224   -0.00001
  225   -0.00005
  226    0.00001
  227   -0.00002
  228    0.00000
  229    0.00001
  230   -0.00000
  231    0.00003
  232   -0.00017
  233   -0.00000
  234   -0.00000
  235    0.00001
  236    0.00039
  237   -0.00009
  238    0.00025
  239    0.00001
  240   -0.00001
  241   -0.00001
  242   -0.00001
  243   -0.00000
  244    0.00000
  245   -0.00001
  246   -0.00005
  247    0.00048
  248   -0.00000
  249    0.00000
  250    0.00002
  251    0.00030
  252   -0.00013
  253   -0.00010
  254   -0.00000
  255   -0.00004
  256    0.00000
  257   -0.00001
  258   -0.00000
  259    0.00001
  260   -0.00001
  261    0.00010
  262   -0.00031
  263    0.00000
  264   -0.00000
  265    0.00002
  266    0.00052
  267   -0.00010
  268    0.00044
  269    0.00004
  270   -0.00002
  271   -0.00002
  272   -0.00002
  273    0.00004
  274   -0.00001
  275   -0.00008
  276    0.00054
  277    0.00626
  278   -0.00036
  279    0.00005
  280    0.00009
  281   -0.00030
  282    0.00008
  283    0.00143
  284   -0.00017
  285    0.00007
  286   -0.00062
  287    0.00005
  288    0.00037
  289   -0.00008
  290   -0.00001
  291   -0.00003
  292   -0.00191
  293    0.00017
  294   -0.00002
  295    0.00003
  296    0.00068
  297   -0.00009
  298    0.00054
  299   -0.00014
  300   -0.00007
  301   -0.00002
  302    0.00001
  303   -0.00006
  304    0.00001
  305    0.00002
  306    0.00006
  307    0.00000
  308    0.00000
  309    0.00000
  310    0.00001
  311    0.00005
  312    0.00000
  313   -0.00000
  314    0.00000
  315    0.00005
  316    0.00010
  317   -0.00001
  318   -0.00000
  319    0.00001
  320    0.00002
  321    0.00007
  322    0.00000
  323   -0.00000
  324    0.00000
  325    0.00010
  326    0.00110
  327    0.00001
  328    0.00003
  329    0.00001
  330    0.00001
  331   -0.00000
  332   -0.00002
  333    0.00001
  334    0.00004
  335   -0.00003
  336   -0.00003
  337   -0.00001
  338    0.00000
  339   -0.00001
  340    0.00003
  341    0.00010
  342    0.00001
  343   -0.00000
  344    0.00000
  345    0.00008
  346    0.00036
  347   -0.00002
  348   -0.00000
  349   -0.00000
  350   -0.00056
  351   -0.00093
  352    0.00009
  353   -0.00005
  354   -0.00017
  355   -0.00055
  356   -0.00095
  357    0.00011
  358    0.00002
  359   -0.00017
  360    0.00000
  361   -0.00015
  362    0.00009
  363    0.00000
  364   -0.00002
  365    0.00001
  366   -0.00021
  367    0.00009